Title: ** sch_path: /foss/designs/tt09-analog-opamp-3stage/xschem/tb_op_amp_3stage.sch
Date: Tue Oct 29 23:55:00  2024
Plotname: Noise Spectral Density Curves
Flags: real
No. Variables: 1182
No. Points: 81
Variables:
	0	frequency	frequency grid=3
	1	i(@c.x1.xc1.c1[i])	current
	2	i(@c.x1.xc2.c1[i])	current
	3	i(@c.x1.xc3.c1[i])	current
	4	i(@c.x1.xc4.c1[i])	current
	5	i(@cload1[i])	current
	6	i(@cload[i])	current
	7	i(@i7[current])	current
	8	i(@m.x1.x1.xm1.msky130_fd_pr__nfet_01v8[ib])	current dims=0
	9	i(@m.x1.x1.xm1.msky130_fd_pr__nfet_01v8[id])	current
	10	i(@m.x1.x1.xm1.msky130_fd_pr__nfet_01v8[ig])	current dims=0
	11	i(@m.x1.x1.xm1.msky130_fd_pr__nfet_01v8[is])	current dims=0
	12	i(@m.x1.x1.xm2.msky130_fd_pr__nfet_01v8[ib])	current dims=0
	13	i(@m.x1.x1.xm2.msky130_fd_pr__nfet_01v8[id])	current
	14	i(@m.x1.x1.xm2.msky130_fd_pr__nfet_01v8[ig])	current dims=0
	15	i(@m.x1.x1.xm2.msky130_fd_pr__nfet_01v8[is])	current dims=0
	16	i(@m.x1.x1.xm3.msky130_fd_pr__pfet_01v8[ib])	current dims=0
	17	i(@m.x1.x1.xm3.msky130_fd_pr__pfet_01v8[id])	current
	18	i(@m.x1.x1.xm3.msky130_fd_pr__pfet_01v8[ig])	current dims=0
	19	i(@m.x1.x1.xm3.msky130_fd_pr__pfet_01v8[is])	current dims=0
	20	i(@m.x1.x1.xm4.msky130_fd_pr__pfet_01v8[ib])	current dims=0
	21	i(@m.x1.x1.xm4.msky130_fd_pr__pfet_01v8[id])	current
	22	i(@m.x1.x1.xm4.msky130_fd_pr__pfet_01v8[ig])	current dims=0
	23	i(@m.x1.x1.xm4.msky130_fd_pr__pfet_01v8[is])	current dims=0
	24	i(@m.x1.x1.xm5.msky130_fd_pr__nfet_01v8[ib])	current dims=0
	25	i(@m.x1.x1.xm5.msky130_fd_pr__nfet_01v8[id])	current
	26	i(@m.x1.x1.xm5.msky130_fd_pr__nfet_01v8[ig])	current dims=0
	27	i(@m.x1.x1.xm5.msky130_fd_pr__nfet_01v8[is])	current dims=0
	28	i(@m.x1.x1.xm6.msky130_fd_pr__pfet_01v8[ib])	current dims=0
	29	i(@m.x1.x1.xm6.msky130_fd_pr__pfet_01v8[id])	current
	30	i(@m.x1.x1.xm6.msky130_fd_pr__pfet_01v8[ig])	current dims=0
	31	i(@m.x1.x1.xm6.msky130_fd_pr__pfet_01v8[is])	current dims=0
	32	i(@m.x1.x1.xm7.msky130_fd_pr__nfet_01v8[ib])	current dims=0
	33	i(@m.x1.x1.xm7.msky130_fd_pr__nfet_01v8[id])	current
	34	i(@m.x1.x1.xm7.msky130_fd_pr__nfet_01v8[ig])	current dims=0
	35	i(@m.x1.x1.xm7.msky130_fd_pr__nfet_01v8[is])	current dims=0
	36	i(@m.x1.x1.xm8.msky130_fd_pr__nfet_01v8[ib])	current dims=0
	37	i(@m.x1.x1.xm8.msky130_fd_pr__nfet_01v8[id])	current
	38	i(@m.x1.x1.xm8.msky130_fd_pr__nfet_01v8[ig])	current dims=0
	39	i(@m.x1.x1.xm8.msky130_fd_pr__nfet_01v8[is])	current dims=0
	40	i(@m.x1.x1.xm9.msky130_fd_pr__nfet_01v8_lvt[ib])	current dims=0
	41	i(@m.x1.x1.xm9.msky130_fd_pr__nfet_01v8_lvt[id])	current
	42	i(@m.x1.x1.xm9.msky130_fd_pr__nfet_01v8_lvt[ig])	current dims=0
	43	i(@m.x1.x1.xm9.msky130_fd_pr__nfet_01v8_lvt[is])	current dims=0
	44	i(@m.x1.x1.xm10.msky130_fd_pr__nfet_01v8_lvt[ib])	current dims=0
	45	i(@m.x1.x1.xm10.msky130_fd_pr__nfet_01v8_lvt[id])	current
	46	i(@m.x1.x1.xm10.msky130_fd_pr__nfet_01v8_lvt[ig])	current dims=0
	47	i(@m.x1.x1.xm10.msky130_fd_pr__nfet_01v8_lvt[is])	current dims=0
	48	i(@m.x1.x1.xm11.msky130_fd_pr__pfet_01v8_lvt[ib])	current dims=0
	49	i(@m.x1.x1.xm11.msky130_fd_pr__pfet_01v8_lvt[id])	current
	50	i(@m.x1.x1.xm11.msky130_fd_pr__pfet_01v8_lvt[ig])	current dims=0
	51	i(@m.x1.x1.xm11.msky130_fd_pr__pfet_01v8_lvt[is])	current dims=0
	52	i(@m.x1.x1.xm12.msky130_fd_pr__pfet_01v8_lvt[ib])	current dims=0
	53	i(@m.x1.x1.xm12.msky130_fd_pr__pfet_01v8_lvt[id])	current
	54	i(@m.x1.x1.xm12.msky130_fd_pr__pfet_01v8_lvt[ig])	current dims=0
	55	i(@m.x1.x1.xm12.msky130_fd_pr__pfet_01v8_lvt[is])	current dims=0
	56	i(@m.x1.x1.xm13.msky130_fd_pr__pfet_01v8_lvt[ib])	current dims=0
	57	i(@m.x1.x1.xm13.msky130_fd_pr__pfet_01v8_lvt[id])	current
	58	i(@m.x1.x1.xm13.msky130_fd_pr__pfet_01v8_lvt[ig])	current dims=0
	59	i(@m.x1.x1.xm13.msky130_fd_pr__pfet_01v8_lvt[is])	current dims=0
	60	i(@m.x1.x1.xm14.msky130_fd_pr__pfet_01v8[ib])	current dims=0
	61	i(@m.x1.x1.xm14.msky130_fd_pr__pfet_01v8[id])	current
	62	i(@m.x1.x1.xm14.msky130_fd_pr__pfet_01v8[ig])	current dims=0
	63	i(@m.x1.x1.xm14.msky130_fd_pr__pfet_01v8[is])	current dims=0
	64	i(@m.x1.x1.xm15.msky130_fd_pr__pfet_01v8_lvt[ib])	current dims=0
	65	i(@m.x1.x1.xm15.msky130_fd_pr__pfet_01v8_lvt[id])	current
	66	i(@m.x1.x1.xm15.msky130_fd_pr__pfet_01v8_lvt[ig])	current dims=0
	67	i(@m.x1.x1.xm15.msky130_fd_pr__pfet_01v8_lvt[is])	current dims=0
	68	i(@m.x1.x1.xm16.msky130_fd_pr__pfet_01v8[ib])	current dims=0
	69	i(@m.x1.x1.xm16.msky130_fd_pr__pfet_01v8[id])	current
	70	i(@m.x1.x1.xm16.msky130_fd_pr__pfet_01v8[ig])	current dims=0
	71	i(@m.x1.x1.xm16.msky130_fd_pr__pfet_01v8[is])	current dims=0
	72	i(@m.x1.x1.xm17.msky130_fd_pr__nfet_01v8[ib])	current dims=0
	73	i(@m.x1.x1.xm17.msky130_fd_pr__nfet_01v8[id])	current
	74	i(@m.x1.x1.xm17.msky130_fd_pr__nfet_01v8[ig])	current dims=0
	75	i(@m.x1.x1.xm17.msky130_fd_pr__nfet_01v8[is])	current dims=0
	76	i(@m.x1.x1.xm18.msky130_fd_pr__nfet_01v8[ib])	current dims=0
	77	i(@m.x1.x1.xm18.msky130_fd_pr__nfet_01v8[id])	current
	78	i(@m.x1.x1.xm18.msky130_fd_pr__nfet_01v8[ig])	current dims=0
	79	i(@m.x1.x1.xm18.msky130_fd_pr__nfet_01v8[is])	current dims=0
	80	@m.x1.xm1.msky130_fd_pr__nfet_01v8_lvt[gm]	admittance
	81	i(@m.x1.xm1.msky130_fd_pr__nfet_01v8_lvt[ib])	current dims=0
	82	i(@m.x1.xm1.msky130_fd_pr__nfet_01v8_lvt[id])	current
	83	i(@m.x1.xm1.msky130_fd_pr__nfet_01v8_lvt[ig])	current dims=0
	84	i(@m.x1.xm1.msky130_fd_pr__nfet_01v8_lvt[is])	current dims=0
	85	@m.x1.xm2.msky130_fd_pr__pfet_01v8_lvt[gm]	admittance
	86	i(@m.x1.xm2.msky130_fd_pr__pfet_01v8_lvt[ib])	current dims=0
	87	i(@m.x1.xm2.msky130_fd_pr__pfet_01v8_lvt[id])	current
	88	i(@m.x1.xm2.msky130_fd_pr__pfet_01v8_lvt[ig])	current dims=0
	89	i(@m.x1.xm2.msky130_fd_pr__pfet_01v8_lvt[is])	current dims=0
	90	i(@m.x1.xm3.msky130_fd_pr__nfet_01v8_lvt[ib])	current dims=0
	91	i(@m.x1.xm3.msky130_fd_pr__nfet_01v8_lvt[id])	current
	92	i(@m.x1.xm3.msky130_fd_pr__nfet_01v8_lvt[ig])	current dims=0
	93	i(@m.x1.xm3.msky130_fd_pr__nfet_01v8_lvt[is])	current dims=0
	94	i(@m.x1.xm4.msky130_fd_pr__nfet_01v8_lvt[ib])	current dims=0
	95	i(@m.x1.xm4.msky130_fd_pr__nfet_01v8_lvt[id])	current
	96	i(@m.x1.xm4.msky130_fd_pr__nfet_01v8_lvt[ig])	current dims=0
	97	i(@m.x1.xm4.msky130_fd_pr__nfet_01v8_lvt[is])	current dims=0
	98	i(@m.x1.xm5.msky130_fd_pr__nfet_01v8_lvt[ib])	current dims=0
	99	i(@m.x1.xm5.msky130_fd_pr__nfet_01v8_lvt[id])	current
	100	i(@m.x1.xm5.msky130_fd_pr__nfet_01v8_lvt[ig])	current dims=0
	101	i(@m.x1.xm5.msky130_fd_pr__nfet_01v8_lvt[is])	current dims=0
	102	i(@m.x1.xm6.msky130_fd_pr__pfet_01v8_lvt[ib])	current dims=0
	103	i(@m.x1.xm6.msky130_fd_pr__pfet_01v8_lvt[id])	current
	104	i(@m.x1.xm6.msky130_fd_pr__pfet_01v8_lvt[ig])	current dims=0
	105	i(@m.x1.xm6.msky130_fd_pr__pfet_01v8_lvt[is])	current dims=0
	106	i(@m.x1.xm7.msky130_fd_pr__pfet_01v8_lvt[ib])	current dims=0
	107	i(@m.x1.xm7.msky130_fd_pr__pfet_01v8_lvt[id])	current
	108	i(@m.x1.xm7.msky130_fd_pr__pfet_01v8_lvt[ig])	current dims=0
	109	i(@m.x1.xm7.msky130_fd_pr__pfet_01v8_lvt[is])	current dims=0
	110	i(@m.x1.xm8.msky130_fd_pr__pfet_01v8_lvt[ib])	current dims=0
	111	i(@m.x1.xm8.msky130_fd_pr__pfet_01v8_lvt[id])	current
	112	i(@m.x1.xm8.msky130_fd_pr__pfet_01v8_lvt[ig])	current dims=0
	113	i(@m.x1.xm8.msky130_fd_pr__pfet_01v8_lvt[is])	current dims=0
	114	i(@m.x1.xm9.msky130_fd_pr__nfet_01v8_lvt[ib])	current dims=0
	115	i(@m.x1.xm9.msky130_fd_pr__nfet_01v8_lvt[id])	current
	116	i(@m.x1.xm9.msky130_fd_pr__nfet_01v8_lvt[ig])	current dims=0
	117	i(@m.x1.xm9.msky130_fd_pr__nfet_01v8_lvt[is])	current dims=0
	118	i(@m.x1.xm10.msky130_fd_pr__nfet_01v8_lvt[ib])	current dims=0
	119	i(@m.x1.xm10.msky130_fd_pr__nfet_01v8_lvt[id])	current
	120	i(@m.x1.xm10.msky130_fd_pr__nfet_01v8_lvt[ig])	current dims=0
	121	i(@m.x1.xm10.msky130_fd_pr__nfet_01v8_lvt[is])	current dims=0
	122	@m.x1.xm11.msky130_fd_pr__pfet_01v8[gm]	admittance
	123	i(@m.x1.xm11.msky130_fd_pr__pfet_01v8[ib])	current dims=0
	124	i(@m.x1.xm11.msky130_fd_pr__pfet_01v8[id])	current
	125	i(@m.x1.xm11.msky130_fd_pr__pfet_01v8[ig])	current dims=0
	126	i(@m.x1.xm11.msky130_fd_pr__pfet_01v8[is])	current dims=0
	127	@m.x1.xm12.msky130_fd_pr__pfet_01v8[gm]	admittance
	128	i(@m.x1.xm12.msky130_fd_pr__pfet_01v8[ib])	current dims=0
	129	i(@m.x1.xm12.msky130_fd_pr__pfet_01v8[id])	current
	130	i(@m.x1.xm12.msky130_fd_pr__pfet_01v8[ig])	current dims=0
	131	i(@m.x1.xm12.msky130_fd_pr__pfet_01v8[is])	current dims=0
	132	@m.x1.xm13.msky130_fd_pr__nfet_01v8_lvt[gm]	admittance
	133	i(@m.x1.xm13.msky130_fd_pr__nfet_01v8_lvt[ib])	current dims=0
	134	i(@m.x1.xm13.msky130_fd_pr__nfet_01v8_lvt[id])	current
	135	i(@m.x1.xm13.msky130_fd_pr__nfet_01v8_lvt[ig])	current dims=0
	136	i(@m.x1.xm13.msky130_fd_pr__nfet_01v8_lvt[is])	current dims=0
	137	@m.x1.xm14.msky130_fd_pr__nfet_01v8_lvt[gm]	admittance
	138	i(@m.x1.xm14.msky130_fd_pr__nfet_01v8_lvt[ib])	current dims=0
	139	i(@m.x1.xm14.msky130_fd_pr__nfet_01v8_lvt[id])	current
	140	i(@m.x1.xm14.msky130_fd_pr__nfet_01v8_lvt[ig])	current dims=0
	141	i(@m.x1.xm14.msky130_fd_pr__nfet_01v8_lvt[is])	current dims=0
	142	@m.x1.xm15.msky130_fd_pr__pfet_01v8_lvt[gm]	admittance
	143	i(@m.x1.xm15.msky130_fd_pr__pfet_01v8_lvt[ib])	current dims=0
	144	i(@m.x1.xm15.msky130_fd_pr__pfet_01v8_lvt[id])	current
	145	i(@m.x1.xm15.msky130_fd_pr__pfet_01v8_lvt[ig])	current dims=0
	146	i(@m.x1.xm15.msky130_fd_pr__pfet_01v8_lvt[is])	current dims=0
	147	@m.x1.xm16.msky130_fd_pr__pfet_01v8_lvt[gm]	admittance
	148	i(@m.x1.xm16.msky130_fd_pr__pfet_01v8_lvt[ib])	current dims=0
	149	i(@m.x1.xm16.msky130_fd_pr__pfet_01v8_lvt[id])	current
	150	i(@m.x1.xm16.msky130_fd_pr__pfet_01v8_lvt[ig])	current dims=0
	151	i(@m.x1.xm16.msky130_fd_pr__pfet_01v8_lvt[is])	current dims=0
	152	i(@m.x1.xm17.msky130_fd_pr__pfet_01v8[ib])	current dims=0
	153	i(@m.x1.xm17.msky130_fd_pr__pfet_01v8[id])	current
	154	i(@m.x1.xm17.msky130_fd_pr__pfet_01v8[ig])	current dims=0
	155	i(@m.x1.xm17.msky130_fd_pr__pfet_01v8[is])	current dims=0
	156	i(@m.x1.xm18.msky130_fd_pr__pfet_01v8[ib])	current dims=0
	157	i(@m.x1.xm18.msky130_fd_pr__pfet_01v8[id])	current
	158	i(@m.x1.xm18.msky130_fd_pr__pfet_01v8[ig])	current dims=0
	159	i(@m.x1.xm18.msky130_fd_pr__pfet_01v8[is])	current dims=0
	160	i(@m.x1.xm19.msky130_fd_pr__nfet_01v8_lvt[ib])	current dims=0
	161	i(@m.x1.xm19.msky130_fd_pr__nfet_01v8_lvt[id])	current
	162	i(@m.x1.xm19.msky130_fd_pr__nfet_01v8_lvt[ig])	current dims=0
	163	i(@m.x1.xm19.msky130_fd_pr__nfet_01v8_lvt[is])	current dims=0
	164	i(@m.x1.xm20.msky130_fd_pr__pfet_01v8[ib])	current dims=0
	165	i(@m.x1.xm20.msky130_fd_pr__pfet_01v8[id])	current
	166	i(@m.x1.xm20.msky130_fd_pr__pfet_01v8[ig])	current dims=0
	167	i(@m.x1.xm20.msky130_fd_pr__pfet_01v8[is])	current dims=0
	168	i(@m.x1.xm21.msky130_fd_pr__nfet_01v8_lvt[ib])	current dims=0
	169	i(@m.x1.xm21.msky130_fd_pr__nfet_01v8_lvt[id])	current
	170	i(@m.x1.xm21.msky130_fd_pr__nfet_01v8_lvt[ig])	current dims=0
	171	i(@m.x1.xm21.msky130_fd_pr__nfet_01v8_lvt[is])	current dims=0
	172	i(@m.x1.xm22.msky130_fd_pr__nfet_01v8_lvt[ib])	current dims=0
	173	i(@m.x1.xm22.msky130_fd_pr__nfet_01v8_lvt[id])	current
	174	i(@m.x1.xm22.msky130_fd_pr__nfet_01v8_lvt[ig])	current dims=0
	175	i(@m.x1.xm22.msky130_fd_pr__nfet_01v8_lvt[is])	current dims=0
	176	i(@m.x1.xm23.msky130_fd_pr__nfet_01v8_lvt[ib])	current dims=0
	177	i(@m.x1.xm23.msky130_fd_pr__nfet_01v8_lvt[id])	current
	178	i(@m.x1.xm23.msky130_fd_pr__nfet_01v8_lvt[ig])	current dims=0
	179	i(@m.x1.xm23.msky130_fd_pr__nfet_01v8_lvt[is])	current dims=0
	180	i(@m.x1.xm24.msky130_fd_pr__nfet_01v8_lvt[ib])	current dims=0
	181	i(@m.x1.xm24.msky130_fd_pr__nfet_01v8_lvt[id])	current
	182	i(@m.x1.xm24.msky130_fd_pr__nfet_01v8_lvt[ig])	current dims=0
	183	i(@m.x1.xm24.msky130_fd_pr__nfet_01v8_lvt[is])	current dims=0
	184	i(@m.x1.xm25.msky130_fd_pr__pfet_01v8[ib])	current dims=0
	185	i(@m.x1.xm25.msky130_fd_pr__pfet_01v8[id])	current
	186	i(@m.x1.xm25.msky130_fd_pr__pfet_01v8[ig])	current dims=0
	187	i(@m.x1.xm25.msky130_fd_pr__pfet_01v8[is])	current dims=0
	188	i(@m.x1.xm26.msky130_fd_pr__pfet_01v8[ib])	current dims=0
	189	i(@m.x1.xm26.msky130_fd_pr__pfet_01v8[id])	current
	190	i(@m.x1.xm26.msky130_fd_pr__pfet_01v8[ig])	current dims=0
	191	i(@m.x1.xm26.msky130_fd_pr__pfet_01v8[is])	current dims=0
	192	i(@m.x1.xm27.msky130_fd_pr__pfet_01v8_lvt[ib])	current dims=0
	193	i(@m.x1.xm27.msky130_fd_pr__pfet_01v8_lvt[id])	current
	194	i(@m.x1.xm27.msky130_fd_pr__pfet_01v8_lvt[ig])	current dims=0
	195	i(@m.x1.xm27.msky130_fd_pr__pfet_01v8_lvt[is])	current dims=0
	196	i(@m.x1.xm28.msky130_fd_pr__pfet_01v8_lvt[ib])	current dims=0
	197	i(@m.x1.xm28.msky130_fd_pr__pfet_01v8_lvt[id])	current
	198	i(@m.x1.xm28.msky130_fd_pr__pfet_01v8_lvt[ig])	current dims=0
	199	i(@m.x1.xm28.msky130_fd_pr__pfet_01v8_lvt[is])	current dims=0
	200	i(@m.x1.xm29.msky130_fd_pr__nfet_01v8_lvt[ib])	current dims=0
	201	i(@m.x1.xm29.msky130_fd_pr__nfet_01v8_lvt[id])	current
	202	i(@m.x1.xm29.msky130_fd_pr__nfet_01v8_lvt[ig])	current dims=0
	203	i(@m.x1.xm29.msky130_fd_pr__nfet_01v8_lvt[is])	current dims=0
	204	i(@m.x1.xm30.msky130_fd_pr__nfet_01v8_lvt[ib])	current dims=0
	205	i(@m.x1.xm30.msky130_fd_pr__nfet_01v8_lvt[id])	current
	206	i(@m.x1.xm30.msky130_fd_pr__nfet_01v8_lvt[ig])	current dims=0
	207	i(@m.x1.xm30.msky130_fd_pr__nfet_01v8_lvt[is])	current dims=0
	208	i(@m.x1.xm31.msky130_fd_pr__nfet_01v8_lvt[ib])	current dims=0
	209	i(@m.x1.xm31.msky130_fd_pr__nfet_01v8_lvt[id])	current
	210	i(@m.x1.xm31.msky130_fd_pr__nfet_01v8_lvt[ig])	current dims=0
	211	i(@m.x1.xm31.msky130_fd_pr__nfet_01v8_lvt[is])	current dims=0
	212	i(@m.x1.xm32.msky130_fd_pr__nfet_01v8_lvt[ib])	current dims=0
	213	i(@m.x1.xm32.msky130_fd_pr__nfet_01v8_lvt[id])	current
	214	i(@m.x1.xm32.msky130_fd_pr__nfet_01v8_lvt[ig])	current dims=0
	215	i(@m.x1.xm32.msky130_fd_pr__nfet_01v8_lvt[is])	current dims=0
	216	i(@m.x1.xm33.msky130_fd_pr__pfet_01v8[ib])	current dims=0
	217	i(@m.x1.xm33.msky130_fd_pr__pfet_01v8[id])	current
	218	i(@m.x1.xm33.msky130_fd_pr__pfet_01v8[ig])	current dims=0
	219	i(@m.x1.xm33.msky130_fd_pr__pfet_01v8[is])	current dims=0
	220	i(@m.x1.xm34.msky130_fd_pr__nfet_01v8_lvt[ib])	current dims=0
	221	i(@m.x1.xm34.msky130_fd_pr__nfet_01v8_lvt[id])	current
	222	i(@m.x1.xm34.msky130_fd_pr__nfet_01v8_lvt[ig])	current dims=0
	223	i(@m.x1.xm34.msky130_fd_pr__nfet_01v8_lvt[is])	current dims=0
	224	i(@m.x1.xm35.msky130_fd_pr__pfet_01v8_lvt[ib])	current dims=0
	225	i(@m.x1.xm35.msky130_fd_pr__pfet_01v8_lvt[id])	current
	226	i(@m.x1.xm35.msky130_fd_pr__pfet_01v8_lvt[ig])	current dims=0
	227	i(@m.x1.xm35.msky130_fd_pr__pfet_01v8_lvt[is])	current dims=0
	228	i(@m.x1.xm36.msky130_fd_pr__pfet_01v8[ib])	current dims=0
	229	i(@m.x1.xm36.msky130_fd_pr__pfet_01v8[id])	current
	230	i(@m.x1.xm36.msky130_fd_pr__pfet_01v8[ig])	current dims=0
	231	i(@m.x1.xm36.msky130_fd_pr__pfet_01v8[is])	current dims=0
	232	i(@m.x1.xm37.msky130_fd_pr__pfet_01v8_lvt[ib])	current dims=0
	233	i(@m.x1.xm37.msky130_fd_pr__pfet_01v8_lvt[id])	current
	234	i(@m.x1.xm37.msky130_fd_pr__pfet_01v8_lvt[ig])	current dims=0
	235	i(@m.x1.xm37.msky130_fd_pr__pfet_01v8_lvt[is])	current dims=0
	236	i(@m.x1.xm38.msky130_fd_pr__pfet_01v8[ib])	current dims=0
	237	i(@m.x1.xm38.msky130_fd_pr__pfet_01v8[id])	current
	238	i(@m.x1.xm38.msky130_fd_pr__pfet_01v8[ig])	current dims=0
	239	i(@m.x1.xm38.msky130_fd_pr__pfet_01v8[is])	current dims=0
	240	i(@m.x1.xm39.msky130_fd_pr__pfet_01v8_lvt[ib])	current dims=0
	241	i(@m.x1.xm39.msky130_fd_pr__pfet_01v8_lvt[id])	current
	242	i(@m.x1.xm39.msky130_fd_pr__pfet_01v8_lvt[ig])	current dims=0
	243	i(@m.x1.xm39.msky130_fd_pr__pfet_01v8_lvt[is])	current dims=0
	244	i(@m.x1.xm40.msky130_fd_pr__pfet_01v8[ib])	current dims=0
	245	i(@m.x1.xm40.msky130_fd_pr__pfet_01v8[id])	current
	246	i(@m.x1.xm40.msky130_fd_pr__pfet_01v8[ig])	current dims=0
	247	i(@m.x1.xm40.msky130_fd_pr__pfet_01v8[is])	current dims=0
	248	i(@m.x1.xm41.msky130_fd_pr__pfet_01v8_lvt[ib])	current dims=0
	249	i(@m.x1.xm41.msky130_fd_pr__pfet_01v8_lvt[id])	current
	250	i(@m.x1.xm41.msky130_fd_pr__pfet_01v8_lvt[ig])	current dims=0
	251	i(@m.x1.xm41.msky130_fd_pr__pfet_01v8_lvt[is])	current dims=0
	252	i(@m.x1.xm42.msky130_fd_pr__pfet_01v8[ib])	current dims=0
	253	i(@m.x1.xm42.msky130_fd_pr__pfet_01v8[id])	current
	254	i(@m.x1.xm42.msky130_fd_pr__pfet_01v8[ig])	current dims=0
	255	i(@m.x1.xm42.msky130_fd_pr__pfet_01v8[is])	current dims=0
	256	i(@m.x1.xm43.msky130_fd_pr__pfet_01v8_lvt[ib])	current dims=0
	257	i(@m.x1.xm43.msky130_fd_pr__pfet_01v8_lvt[id])	current
	258	i(@m.x1.xm43.msky130_fd_pr__pfet_01v8_lvt[ig])	current dims=0
	259	i(@m.x1.xm43.msky130_fd_pr__pfet_01v8_lvt[is])	current dims=0
	260	i(@m.x1.xm44.msky130_fd_pr__pfet_01v8[ib])	current dims=0
	261	i(@m.x1.xm44.msky130_fd_pr__pfet_01v8[id])	current
	262	i(@m.x1.xm44.msky130_fd_pr__pfet_01v8[ig])	current dims=0
	263	i(@m.x1.xm44.msky130_fd_pr__pfet_01v8[is])	current dims=0
	264	i(@r.x1.xc1.rs1[i])	current
	265	i(@r.x1.xc1.rs2[i])	current
	266	i(@r.x1.xc2.rs1[i])	current
	267	i(@r.x1.xc2.rs2[i])	current
	268	i(@r.x1.xc3.rs1[i])	current
	269	i(@r.x1.xc3.rs2[i])	current
	270	i(@r.x1.xc4.rs1[i])	current
	271	i(@r.x1.xc4.rs2[i])	current
	272	i(@rfb2[i])	current
	273	i(@rfeedback[i])	current
	274	i(@rload1[i])	current
	275	i(@rload[i])	current
	276	inoise_spectrum	voltage-density
	277	onoise.m.x1.x1.xm1.msky130_fd_pr__nfet_01v8	voltage-density
	278	onoise.m.x1.x1.xm1.msky130_fd_pr__nfet_01v8.1overf	voltage-density
	279	onoise.m.x1.x1.xm1.msky130_fd_pr__nfet_01v8.id	voltage-density
	280	onoise.m.x1.x1.xm1.msky130_fd_pr__nfet_01v8.igb	voltage-density
	281	onoise.m.x1.x1.xm1.msky130_fd_pr__nfet_01v8.igd	voltage-density
	282	onoise.m.x1.x1.xm1.msky130_fd_pr__nfet_01v8.igs	voltage-density
	283	onoise.m.x1.x1.xm1.msky130_fd_pr__nfet_01v8.rbdb	voltage-density
	284	onoise.m.x1.x1.xm1.msky130_fd_pr__nfet_01v8.rbpb	voltage-density
	285	onoise.m.x1.x1.xm1.msky130_fd_pr__nfet_01v8.rbpd	voltage-density
	286	onoise.m.x1.x1.xm1.msky130_fd_pr__nfet_01v8.rbps	voltage-density
	287	onoise.m.x1.x1.xm1.msky130_fd_pr__nfet_01v8.rbsb	voltage-density
	288	onoise.m.x1.x1.xm1.msky130_fd_pr__nfet_01v8.rd	voltage-density
	289	onoise.m.x1.x1.xm1.msky130_fd_pr__nfet_01v8.rg	voltage-density
	290	onoise.m.x1.x1.xm1.msky130_fd_pr__nfet_01v8.rs	voltage-density
	291	onoise.m.x1.x1.xm2.msky130_fd_pr__nfet_01v8	voltage-density
	292	onoise.m.x1.x1.xm2.msky130_fd_pr__nfet_01v8.1overf	voltage-density
	293	onoise.m.x1.x1.xm2.msky130_fd_pr__nfet_01v8.id	voltage-density
	294	onoise.m.x1.x1.xm2.msky130_fd_pr__nfet_01v8.igb	voltage-density
	295	onoise.m.x1.x1.xm2.msky130_fd_pr__nfet_01v8.igd	voltage-density
	296	onoise.m.x1.x1.xm2.msky130_fd_pr__nfet_01v8.igs	voltage-density
	297	onoise.m.x1.x1.xm2.msky130_fd_pr__nfet_01v8.rbdb	voltage-density
	298	onoise.m.x1.x1.xm2.msky130_fd_pr__nfet_01v8.rbpb	voltage-density
	299	onoise.m.x1.x1.xm2.msky130_fd_pr__nfet_01v8.rbpd	voltage-density
	300	onoise.m.x1.x1.xm2.msky130_fd_pr__nfet_01v8.rbps	voltage-density
	301	onoise.m.x1.x1.xm2.msky130_fd_pr__nfet_01v8.rbsb	voltage-density
	302	onoise.m.x1.x1.xm2.msky130_fd_pr__nfet_01v8.rd	voltage-density
	303	onoise.m.x1.x1.xm2.msky130_fd_pr__nfet_01v8.rg	voltage-density
	304	onoise.m.x1.x1.xm2.msky130_fd_pr__nfet_01v8.rs	voltage-density
	305	onoise.m.x1.x1.xm3.msky130_fd_pr__pfet_01v8	voltage-density
	306	onoise.m.x1.x1.xm3.msky130_fd_pr__pfet_01v8.1overf	voltage-density
	307	onoise.m.x1.x1.xm3.msky130_fd_pr__pfet_01v8.id	voltage-density
	308	onoise.m.x1.x1.xm3.msky130_fd_pr__pfet_01v8.igb	voltage-density
	309	onoise.m.x1.x1.xm3.msky130_fd_pr__pfet_01v8.igd	voltage-density
	310	onoise.m.x1.x1.xm3.msky130_fd_pr__pfet_01v8.igs	voltage-density
	311	onoise.m.x1.x1.xm3.msky130_fd_pr__pfet_01v8.rbdb	voltage-density
	312	onoise.m.x1.x1.xm3.msky130_fd_pr__pfet_01v8.rbpb	voltage-density
	313	onoise.m.x1.x1.xm3.msky130_fd_pr__pfet_01v8.rbpd	voltage-density
	314	onoise.m.x1.x1.xm3.msky130_fd_pr__pfet_01v8.rbps	voltage-density
	315	onoise.m.x1.x1.xm3.msky130_fd_pr__pfet_01v8.rbsb	voltage-density
	316	onoise.m.x1.x1.xm3.msky130_fd_pr__pfet_01v8.rd	voltage-density
	317	onoise.m.x1.x1.xm3.msky130_fd_pr__pfet_01v8.rg	voltage-density
	318	onoise.m.x1.x1.xm3.msky130_fd_pr__pfet_01v8.rs	voltage-density
	319	onoise.m.x1.x1.xm4.msky130_fd_pr__pfet_01v8	voltage-density
	320	onoise.m.x1.x1.xm4.msky130_fd_pr__pfet_01v8.1overf	voltage-density
	321	onoise.m.x1.x1.xm4.msky130_fd_pr__pfet_01v8.id	voltage-density
	322	onoise.m.x1.x1.xm4.msky130_fd_pr__pfet_01v8.igb	voltage-density
	323	onoise.m.x1.x1.xm4.msky130_fd_pr__pfet_01v8.igd	voltage-density
	324	onoise.m.x1.x1.xm4.msky130_fd_pr__pfet_01v8.igs	voltage-density
	325	onoise.m.x1.x1.xm4.msky130_fd_pr__pfet_01v8.rbdb	voltage-density
	326	onoise.m.x1.x1.xm4.msky130_fd_pr__pfet_01v8.rbpb	voltage-density
	327	onoise.m.x1.x1.xm4.msky130_fd_pr__pfet_01v8.rbpd	voltage-density
	328	onoise.m.x1.x1.xm4.msky130_fd_pr__pfet_01v8.rbps	voltage-density
	329	onoise.m.x1.x1.xm4.msky130_fd_pr__pfet_01v8.rbsb	voltage-density
	330	onoise.m.x1.x1.xm4.msky130_fd_pr__pfet_01v8.rd	voltage-density
	331	onoise.m.x1.x1.xm4.msky130_fd_pr__pfet_01v8.rg	voltage-density
	332	onoise.m.x1.x1.xm4.msky130_fd_pr__pfet_01v8.rs	voltage-density
	333	onoise.m.x1.x1.xm5.msky130_fd_pr__nfet_01v8	voltage-density
	334	onoise.m.x1.x1.xm5.msky130_fd_pr__nfet_01v8.1overf	voltage-density
	335	onoise.m.x1.x1.xm5.msky130_fd_pr__nfet_01v8.id	voltage-density
	336	onoise.m.x1.x1.xm5.msky130_fd_pr__nfet_01v8.igb	voltage-density
	337	onoise.m.x1.x1.xm5.msky130_fd_pr__nfet_01v8.igd	voltage-density
	338	onoise.m.x1.x1.xm5.msky130_fd_pr__nfet_01v8.igs	voltage-density
	339	onoise.m.x1.x1.xm5.msky130_fd_pr__nfet_01v8.rbdb	voltage-density
	340	onoise.m.x1.x1.xm5.msky130_fd_pr__nfet_01v8.rbpb	voltage-density
	341	onoise.m.x1.x1.xm5.msky130_fd_pr__nfet_01v8.rbpd	voltage-density
	342	onoise.m.x1.x1.xm5.msky130_fd_pr__nfet_01v8.rbps	voltage-density
	343	onoise.m.x1.x1.xm5.msky130_fd_pr__nfet_01v8.rbsb	voltage-density
	344	onoise.m.x1.x1.xm5.msky130_fd_pr__nfet_01v8.rd	voltage-density
	345	onoise.m.x1.x1.xm5.msky130_fd_pr__nfet_01v8.rg	voltage-density
	346	onoise.m.x1.x1.xm5.msky130_fd_pr__nfet_01v8.rs	voltage-density
	347	onoise.m.x1.x1.xm6.msky130_fd_pr__pfet_01v8	voltage-density
	348	onoise.m.x1.x1.xm6.msky130_fd_pr__pfet_01v8.1overf	voltage-density
	349	onoise.m.x1.x1.xm6.msky130_fd_pr__pfet_01v8.id	voltage-density
	350	onoise.m.x1.x1.xm6.msky130_fd_pr__pfet_01v8.igb	voltage-density
	351	onoise.m.x1.x1.xm6.msky130_fd_pr__pfet_01v8.igd	voltage-density
	352	onoise.m.x1.x1.xm6.msky130_fd_pr__pfet_01v8.igs	voltage-density
	353	onoise.m.x1.x1.xm6.msky130_fd_pr__pfet_01v8.rbdb	voltage-density
	354	onoise.m.x1.x1.xm6.msky130_fd_pr__pfet_01v8.rbpb	voltage-density
	355	onoise.m.x1.x1.xm6.msky130_fd_pr__pfet_01v8.rbpd	voltage-density
	356	onoise.m.x1.x1.xm6.msky130_fd_pr__pfet_01v8.rbps	voltage-density
	357	onoise.m.x1.x1.xm6.msky130_fd_pr__pfet_01v8.rbsb	voltage-density
	358	onoise.m.x1.x1.xm6.msky130_fd_pr__pfet_01v8.rd	voltage-density
	359	onoise.m.x1.x1.xm6.msky130_fd_pr__pfet_01v8.rg	voltage-density
	360	onoise.m.x1.x1.xm6.msky130_fd_pr__pfet_01v8.rs	voltage-density
	361	onoise.m.x1.x1.xm7.msky130_fd_pr__nfet_01v8	voltage-density
	362	onoise.m.x1.x1.xm7.msky130_fd_pr__nfet_01v8.1overf	voltage-density
	363	onoise.m.x1.x1.xm7.msky130_fd_pr__nfet_01v8.id	voltage-density
	364	onoise.m.x1.x1.xm7.msky130_fd_pr__nfet_01v8.igb	voltage-density
	365	onoise.m.x1.x1.xm7.msky130_fd_pr__nfet_01v8.igd	voltage-density
	366	onoise.m.x1.x1.xm7.msky130_fd_pr__nfet_01v8.igs	voltage-density
	367	onoise.m.x1.x1.xm7.msky130_fd_pr__nfet_01v8.rbdb	voltage-density
	368	onoise.m.x1.x1.xm7.msky130_fd_pr__nfet_01v8.rbpb	voltage-density
	369	onoise.m.x1.x1.xm7.msky130_fd_pr__nfet_01v8.rbpd	voltage-density
	370	onoise.m.x1.x1.xm7.msky130_fd_pr__nfet_01v8.rbps	voltage-density
	371	onoise.m.x1.x1.xm7.msky130_fd_pr__nfet_01v8.rbsb	voltage-density
	372	onoise.m.x1.x1.xm7.msky130_fd_pr__nfet_01v8.rd	voltage-density
	373	onoise.m.x1.x1.xm7.msky130_fd_pr__nfet_01v8.rg	voltage-density
	374	onoise.m.x1.x1.xm7.msky130_fd_pr__nfet_01v8.rs	voltage-density
	375	onoise.m.x1.x1.xm8.msky130_fd_pr__nfet_01v8	voltage-density
	376	onoise.m.x1.x1.xm8.msky130_fd_pr__nfet_01v8.1overf	voltage-density
	377	onoise.m.x1.x1.xm8.msky130_fd_pr__nfet_01v8.id	voltage-density
	378	onoise.m.x1.x1.xm8.msky130_fd_pr__nfet_01v8.igb	voltage-density
	379	onoise.m.x1.x1.xm8.msky130_fd_pr__nfet_01v8.igd	voltage-density
	380	onoise.m.x1.x1.xm8.msky130_fd_pr__nfet_01v8.igs	voltage-density
	381	onoise.m.x1.x1.xm8.msky130_fd_pr__nfet_01v8.rbdb	voltage-density
	382	onoise.m.x1.x1.xm8.msky130_fd_pr__nfet_01v8.rbpb	voltage-density
	383	onoise.m.x1.x1.xm8.msky130_fd_pr__nfet_01v8.rbpd	voltage-density
	384	onoise.m.x1.x1.xm8.msky130_fd_pr__nfet_01v8.rbps	voltage-density
	385	onoise.m.x1.x1.xm8.msky130_fd_pr__nfet_01v8.rbsb	voltage-density
	386	onoise.m.x1.x1.xm8.msky130_fd_pr__nfet_01v8.rd	voltage-density
	387	onoise.m.x1.x1.xm8.msky130_fd_pr__nfet_01v8.rg	voltage-density
	388	onoise.m.x1.x1.xm8.msky130_fd_pr__nfet_01v8.rs	voltage-density
	389	onoise.m.x1.x1.xm9.msky130_fd_pr__nfet_01v8_lvt	voltage-density
	390	onoise.m.x1.x1.xm9.msky130_fd_pr__nfet_01v8_lvt.1overf	voltage-density
	391	onoise.m.x1.x1.xm9.msky130_fd_pr__nfet_01v8_lvt.id	voltage-density
	392	onoise.m.x1.x1.xm9.msky130_fd_pr__nfet_01v8_lvt.igb	voltage-density
	393	onoise.m.x1.x1.xm9.msky130_fd_pr__nfet_01v8_lvt.igd	voltage-density
	394	onoise.m.x1.x1.xm9.msky130_fd_pr__nfet_01v8_lvt.igs	voltage-density
	395	onoise.m.x1.x1.xm9.msky130_fd_pr__nfet_01v8_lvt.rbdb	voltage-density
	396	onoise.m.x1.x1.xm9.msky130_fd_pr__nfet_01v8_lvt.rbpb	voltage-density
	397	onoise.m.x1.x1.xm9.msky130_fd_pr__nfet_01v8_lvt.rbpd	voltage-density
	398	onoise.m.x1.x1.xm9.msky130_fd_pr__nfet_01v8_lvt.rbps	voltage-density
	399	onoise.m.x1.x1.xm9.msky130_fd_pr__nfet_01v8_lvt.rbsb	voltage-density
	400	onoise.m.x1.x1.xm9.msky130_fd_pr__nfet_01v8_lvt.rd	voltage-density
	401	onoise.m.x1.x1.xm9.msky130_fd_pr__nfet_01v8_lvt.rg	voltage-density
	402	onoise.m.x1.x1.xm9.msky130_fd_pr__nfet_01v8_lvt.rs	voltage-density
	403	onoise.m.x1.x1.xm10.msky130_fd_pr__nfet_01v8_lvt	voltage-density
	404	onoise.m.x1.x1.xm10.msky130_fd_pr__nfet_01v8_lvt.1overf	voltage-density
	405	onoise.m.x1.x1.xm10.msky130_fd_pr__nfet_01v8_lvt.id	voltage-density
	406	onoise.m.x1.x1.xm10.msky130_fd_pr__nfet_01v8_lvt.igb	voltage-density
	407	onoise.m.x1.x1.xm10.msky130_fd_pr__nfet_01v8_lvt.igd	voltage-density
	408	onoise.m.x1.x1.xm10.msky130_fd_pr__nfet_01v8_lvt.igs	voltage-density
	409	onoise.m.x1.x1.xm10.msky130_fd_pr__nfet_01v8_lvt.rbdb	voltage-density
	410	onoise.m.x1.x1.xm10.msky130_fd_pr__nfet_01v8_lvt.rbpb	voltage-density
	411	onoise.m.x1.x1.xm10.msky130_fd_pr__nfet_01v8_lvt.rbpd	voltage-density
	412	onoise.m.x1.x1.xm10.msky130_fd_pr__nfet_01v8_lvt.rbps	voltage-density
	413	onoise.m.x1.x1.xm10.msky130_fd_pr__nfet_01v8_lvt.rbsb	voltage-density
	414	onoise.m.x1.x1.xm10.msky130_fd_pr__nfet_01v8_lvt.rd	voltage-density
	415	onoise.m.x1.x1.xm10.msky130_fd_pr__nfet_01v8_lvt.rg	voltage-density
	416	onoise.m.x1.x1.xm10.msky130_fd_pr__nfet_01v8_lvt.rs	voltage-density
	417	onoise.m.x1.x1.xm11.msky130_fd_pr__pfet_01v8_lvt	voltage-density
	418	onoise.m.x1.x1.xm11.msky130_fd_pr__pfet_01v8_lvt.1overf	voltage-density
	419	onoise.m.x1.x1.xm11.msky130_fd_pr__pfet_01v8_lvt.id	voltage-density
	420	onoise.m.x1.x1.xm11.msky130_fd_pr__pfet_01v8_lvt.igb	voltage-density
	421	onoise.m.x1.x1.xm11.msky130_fd_pr__pfet_01v8_lvt.igd	voltage-density
	422	onoise.m.x1.x1.xm11.msky130_fd_pr__pfet_01v8_lvt.igs	voltage-density
	423	onoise.m.x1.x1.xm11.msky130_fd_pr__pfet_01v8_lvt.rbdb	voltage-density
	424	onoise.m.x1.x1.xm11.msky130_fd_pr__pfet_01v8_lvt.rbpb	voltage-density
	425	onoise.m.x1.x1.xm11.msky130_fd_pr__pfet_01v8_lvt.rbpd	voltage-density
	426	onoise.m.x1.x1.xm11.msky130_fd_pr__pfet_01v8_lvt.rbps	voltage-density
	427	onoise.m.x1.x1.xm11.msky130_fd_pr__pfet_01v8_lvt.rbsb	voltage-density
	428	onoise.m.x1.x1.xm11.msky130_fd_pr__pfet_01v8_lvt.rd	voltage-density
	429	onoise.m.x1.x1.xm11.msky130_fd_pr__pfet_01v8_lvt.rg	voltage-density
	430	onoise.m.x1.x1.xm11.msky130_fd_pr__pfet_01v8_lvt.rs	voltage-density
	431	onoise.m.x1.x1.xm12.msky130_fd_pr__pfet_01v8_lvt	voltage-density
	432	onoise.m.x1.x1.xm12.msky130_fd_pr__pfet_01v8_lvt.1overf	voltage-density
	433	onoise.m.x1.x1.xm12.msky130_fd_pr__pfet_01v8_lvt.id	voltage-density
	434	onoise.m.x1.x1.xm12.msky130_fd_pr__pfet_01v8_lvt.igb	voltage-density
	435	onoise.m.x1.x1.xm12.msky130_fd_pr__pfet_01v8_lvt.igd	voltage-density
	436	onoise.m.x1.x1.xm12.msky130_fd_pr__pfet_01v8_lvt.igs	voltage-density
	437	onoise.m.x1.x1.xm12.msky130_fd_pr__pfet_01v8_lvt.rbdb	voltage-density
	438	onoise.m.x1.x1.xm12.msky130_fd_pr__pfet_01v8_lvt.rbpb	voltage-density
	439	onoise.m.x1.x1.xm12.msky130_fd_pr__pfet_01v8_lvt.rbpd	voltage-density
	440	onoise.m.x1.x1.xm12.msky130_fd_pr__pfet_01v8_lvt.rbps	voltage-density
	441	onoise.m.x1.x1.xm12.msky130_fd_pr__pfet_01v8_lvt.rbsb	voltage-density
	442	onoise.m.x1.x1.xm12.msky130_fd_pr__pfet_01v8_lvt.rd	voltage-density
	443	onoise.m.x1.x1.xm12.msky130_fd_pr__pfet_01v8_lvt.rg	voltage-density
	444	onoise.m.x1.x1.xm12.msky130_fd_pr__pfet_01v8_lvt.rs	voltage-density
	445	onoise.m.x1.x1.xm13.msky130_fd_pr__pfet_01v8_lvt	voltage-density
	446	onoise.m.x1.x1.xm13.msky130_fd_pr__pfet_01v8_lvt.1overf	voltage-density
	447	onoise.m.x1.x1.xm13.msky130_fd_pr__pfet_01v8_lvt.id	voltage-density
	448	onoise.m.x1.x1.xm13.msky130_fd_pr__pfet_01v8_lvt.igb	voltage-density
	449	onoise.m.x1.x1.xm13.msky130_fd_pr__pfet_01v8_lvt.igd	voltage-density
	450	onoise.m.x1.x1.xm13.msky130_fd_pr__pfet_01v8_lvt.igs	voltage-density
	451	onoise.m.x1.x1.xm13.msky130_fd_pr__pfet_01v8_lvt.rbdb	voltage-density
	452	onoise.m.x1.x1.xm13.msky130_fd_pr__pfet_01v8_lvt.rbpb	voltage-density
	453	onoise.m.x1.x1.xm13.msky130_fd_pr__pfet_01v8_lvt.rbpd	voltage-density
	454	onoise.m.x1.x1.xm13.msky130_fd_pr__pfet_01v8_lvt.rbps	voltage-density
	455	onoise.m.x1.x1.xm13.msky130_fd_pr__pfet_01v8_lvt.rbsb	voltage-density
	456	onoise.m.x1.x1.xm13.msky130_fd_pr__pfet_01v8_lvt.rd	voltage-density
	457	onoise.m.x1.x1.xm13.msky130_fd_pr__pfet_01v8_lvt.rg	voltage-density